<?xml version="1.0" encoding="UTF-8"?>

<!-- generated on Monday 03 August 2020 11:53:07 AM by Eclipse SUMO GUI Version 1.6.0
<configuration xmlns:xsi="http://www.w3.org/2001/XMLSchema-instance" xsi:noNamespaceSchemaLocation="http://sumo.dlr.de/xsd/sumoConfiguration.xsd">

    <input>
        <net-file value="data/bangalore.net.xml"/>
        <route-files value="data/bangalore.rou.xml"/>
        <additional-files value="data/bangalore.poly.xml,data/bangalore.det.xml"/>
    </input>

    <output>
        <fcd-output value="data/fcd_edgedensity.xml"/>
        <tripinfo-output value="data/tripinfo_final.xml"/>
    </output>

    <time>
        <begin value="0"/>
        <end value="10000"/>
    </time>

    <traci_server>
        <remote-port value="46897"/>
    </traci_server>

</configuration>
-->

<tripinfos xmlns:xsi="http://www.w3.org/2001/XMLSchema-instance" xsi:noNamespaceSchemaLocation="http://sumo.dlr.de/xsd/tripinfo_file.xsd">
</tripinfos>
