<?xml version="1.0" encoding="UTF-8"?>

<!-- generated on Saturday 01 August 2020 05:39:54 PM by Eclipse SUMO GUI Version 1.6.0
<configuration xmlns:xsi="http://www.w3.org/2001/XMLSchema-instance" xsi:noNamespaceSchemaLocation="http://sumo.dlr.de/xsd/sumoConfiguration.xsd">

    <input>
        <net-file value="data/bangalore.net.xml"/>
        <route-files value="data/bangalore.rou.xml"/>
        <additional-files value="data/bangalore.poly.xml,data/bangalore.det.xml"/>
    </input>

    <output>
        <fcd-output value="data/fcd_edgedensity.xml"/>
        <tripinfo-output value="data/tripinfo_final.xml"/>
    </output>

    <time>
        <begin value="0"/>
        <end value="10000"/>
    </time>

    <traci_server>
        <remote-port value="46355"/>
    </traci_server>

</configuration>
-->

<tripinfos xmlns:xsi="http://www.w3.org/2001/XMLSchema-instance" xsi:noNamespaceSchemaLocation="http://sumo.dlr.de/xsd/tripinfo_file.xsd">
    <tripinfo id="1" depart="1.00" departLane="143551389#0_0" departPos="5.10" departSpeed="0.00" departDelay="0.00" arrival="47.00" arrivalLane="143551389#1_0" arrivalPos="58.75" arrivalSpeed="12.70" duration="46.00" routeLength="359.83" waitingTime="8.00" waitingCount="1" stopTime="0.00" timeLoss="17.44" rerouteNo="0" devices="tripinfo_1 fcd_1" vType="DEFAULT_VEHTYPE" speedFactor="0.94" vaporized=""/>
    <tripinfo id="12" depart="12.00" departLane="143551389#0_0" departPos="5.10" departSpeed="0.00" departDelay="0.00" arrival="50.00" arrivalLane="-348320661#1_0" arrivalPos="126.59" arrivalSpeed="6.88" duration="38.00" routeLength="427.25" waitingTime="0.00" waitingCount="0" stopTime="0.00" timeLoss="8.47" rerouteNo="0" devices="tripinfo_12 fcd_12" vType="DEFAULT_VEHTYPE" speedFactor="1.05" vaporized=""/>
    <tripinfo id="23" depart="23.00" departLane="-348320661#1_0" departPos="5.10" departSpeed="0.00" departDelay="0.00" arrival="59.00" arrivalLane="-143553082#1_1" arrivalPos="55.80" arrivalSpeed="11.78" duration="36.00" routeLength="243.26" waitingTime="3.00" waitingCount="1" stopTime="0.00" timeLoss="16.30" rerouteNo="0" devices="tripinfo_23 fcd_23" vType="DEFAULT_VEHTYPE" speedFactor="0.89" vaporized=""/>
    <tripinfo id="22" depart="22.00" departLane="-143547931#1_0" departPos="5.10" departSpeed="0.00" departDelay="0.00" arrival="63.00" arrivalLane="-143551389#0_0" arrivalPos="290.07" arrivalSpeed="12.52" duration="41.00" routeLength="491.24" waitingTime="0.00" waitingCount="0" stopTime="0.00" timeLoss="4.07" rerouteNo="0" devices="tripinfo_22 fcd_22" vType="DEFAULT_VEHTYPE" speedFactor="0.98" vaporized=""/>
    <tripinfo id="14" depart="14.00" departLane="-348320661#1_0" departPos="5.10" departSpeed="0.00" departDelay="0.00" arrival="65.00" arrivalLane="143547931#1_0" arrivalPos="126.36" arrivalSpeed="11.58" duration="51.00" routeLength="445.20" waitingTime="1.00" waitingCount="1" stopTime="0.00" timeLoss="17.90" rerouteNo="0" devices="tripinfo_14 fcd_14" vType="DEFAULT_VEHTYPE" speedFactor="0.99" vaporized=""/>
    <tripinfo id="26" depart="26.00" departLane="348320661#1_0" departPos="5.10" departSpeed="0.00" departDelay="0.00" arrival="68.00" arrivalLane="-143551389#0_0" arrivalPos="290.07" arrivalSpeed="11.52" duration="42.00" routeLength="416.83" waitingTime="0.00" waitingCount="0" stopTime="0.00" timeLoss="8.96" rerouteNo="0" devices="tripinfo_26 fcd_26" vType="DEFAULT_VEHTYPE" speedFactor="0.92" vaporized=""/>
    <tripinfo id="20" depart="20.00" departLane="143551389#0_0" departPos="5.10" departSpeed="0.00" departDelay="0.00" arrival="69.00" arrivalLane="-143551389#0_1" arrivalPos="290.07" arrivalSpeed="13.94" duration="49.00" routeLength="579.86" waitingTime="0.00" waitingCount="0" stopTime="0.00" timeLoss="7.45" rerouteNo="0" devices="tripinfo_20 fcd_20" vType="DEFAULT_VEHTYPE" speedFactor="1.02" vaporized=""/>
    <tripinfo id="40" depart="40.00" departLane="348320661#0_0" departPos="5.10" departSpeed="0.00" departDelay="0.00" arrival="69.00" arrivalLane="-348320661#0_1" arrivalPos="111.67" arrivalSpeed="14.10" duration="29.00" routeLength="223.06" waitingTime="4.00" waitingCount="1" stopTime="0.00" timeLoss="12.83" rerouteNo="0" devices="tripinfo_40 fcd_40" vType="DEFAULT_VEHTYPE" speedFactor="1.03" vaporized=""/>
    <tripinfo id="6" depart="6.00" departLane="143553082#1_0" departPos="5.10" departSpeed="0.00" departDelay="0.00" arrival="70.00" arrivalLane="-143551389#0_0" arrivalPos="290.07" arrivalSpeed="14.29" duration="64.00" routeLength="549.08" waitingTime="2.00" waitingCount="1" stopTime="0.00" timeLoss="25.48" rerouteNo="0" devices="tripinfo_6 fcd_6" vType="DEFAULT_VEHTYPE" speedFactor="1.05" vaporized=""/>
    <tripinfo id="41" depart="41.00" departLane="143547931#1_0" departPos="5.10" departSpeed="0.00" departDelay="0.00" arrival="77.00" arrivalLane="143553082#1_1" arrivalPos="55.80" arrivalSpeed="5.78" duration="36.00" routeLength="253.33" waitingTime="0.00" waitingCount="0" stopTime="0.00" timeLoss="16.82" rerouteNo="0" devices="tripinfo_41 fcd_41" vType="DEFAULT_VEHTYPE" speedFactor="0.96" vaporized=""/>
    <tripinfo id="70" depart="70.00" departLane="143553082#1_0" departPos="5.10" departSpeed="0.00" departDelay="0.00" arrival="77.00" arrivalLane="143553082#1_0" arrivalPos="55.80" arrivalSpeed="14.13" duration="7.00" routeLength="50.70" waitingTime="0.00" waitingCount="0" stopTime="0.00" timeLoss="3.03" rerouteNo="0" devices="tripinfo_70 fcd_70" vType="DEFAULT_VEHTYPE" speedFactor="1.02" vaporized=""/>
    <tripinfo id="57" depart="57.00" departLane="-143553082#1_0" departPos="5.10" departSpeed="0.00" departDelay="0.00" arrival="83.00" arrivalLane="143547931#2_1" arrivalPos="70.81" arrivalSpeed="15.69" duration="26.00" routeLength="197.79" waitingTime="0.00" waitingCount="0" stopTime="0.00" timeLoss="12.99" rerouteNo="0" devices="tripinfo_57 fcd_57" vType="DEFAULT_VEHTYPE" speedFactor="1.14" vaporized=""/>
    <tripinfo id="33" depart="33.00" departLane="-143553082#1_0" departPos="5.10" departSpeed="0.00" departDelay="0.00" arrival="84.00" arrivalLane="-143551389#0_0" arrivalPos="290.07" arrivalSpeed="15.02" duration="51.00" routeLength="488.46" waitingTime="6.00" waitingCount="1" stopTime="0.00" timeLoss="20.59" rerouteNo="0" devices="tripinfo_33 fcd_33" vType="DEFAULT_VEHTYPE" speedFactor="1.17" vaporized=""/>
    <tripinfo id="34" depart="34.00" departLane="-143547931#1_0" departPos="5.10" departSpeed="0.00" departDelay="0.00" arrival="88.00" arrivalLane="348320661#1_0" arrivalPos="126.59" arrivalSpeed="11.16" duration="54.00" routeLength="466.31" waitingTime="0.00" waitingCount="0" stopTime="0.00" timeLoss="20.09" rerouteNo="0" devices="tripinfo_34 fcd_34" vType="DEFAULT_VEHTYPE" speedFactor="0.99" vaporized=""/>
    <tripinfo id="28" depart="30.00" departLane="143551389#0_0" departPos="5.10" departSpeed="0.00" departDelay="2.00" arrival="89.00" arrivalLane="143547931#1_1" arrivalPos="126.36" arrivalSpeed="15.10" duration="59.00" routeLength="501.83" waitingTime="10.00" waitingCount="2" stopTime="0.00" timeLoss="26.06" rerouteNo="0" devices="tripinfo_28 fcd_28" vType="DEFAULT_VEHTYPE" speedFactor="1.13" vaporized=""/>
    <tripinfo id="30" depart="33.00" departLane="143551389#0_0" departPos="5.10" departSpeed="0.00" departDelay="3.00" arrival="104.00" arrivalLane="-348320661#0_0" arrivalPos="111.67" arrivalSpeed="16.06" duration="71.00" routeLength="555.25" waitingTime="8.00" waitingCount="1" stopTime="0.00" timeLoss="36.94" rerouteNo="0" devices="tripinfo_30 fcd_30" vType="DEFAULT_VEHTYPE" speedFactor="1.18" vaporized=""/>
    <tripinfo id="11" depart="11.00" departLane="348320661#0_0" departPos="5.10" departSpeed="0.00" departDelay="0.00" arrival="106.00" arrivalLane="-143553082#0_0" arrivalPos="994.11" arrivalSpeed="13.45" duration="95.00" routeLength="1105.91" waitingTime="5.00" waitingCount="1" stopTime="0.00" timeLoss="16.88" rerouteNo="0" devices="tripinfo_11 fcd_11" vType="DEFAULT_VEHTYPE" speedFactor="1.03" vaporized=""/>
    <tripinfo id="50" depart="50.00" departLane="348320661#1_0" departPos="5.10" departSpeed="0.00" departDelay="0.00" arrival="106.00" arrivalLane="-143551389#0_0" arrivalPos="290.07" arrivalSpeed="10.79" duration="56.00" routeLength="416.83" waitingTime="11.00" waitingCount="1" stopTime="0.00" timeLoss="20.39" rerouteNo="0" devices="tripinfo_50 fcd_50" vType="DEFAULT_VEHTYPE" speedFactor="0.85" vaporized=""/>
    <tripinfo id="94" depart="94.00" departLane="-143547931#1_0" departPos="5.10" departSpeed="0.00" departDelay="0.00" arrival="106.00" arrivalLane="-143547931#1_0" arrivalPos="126.36" arrivalSpeed="14.25" duration="12.00" routeLength="121.26" waitingTime="0.00" waitingCount="0" stopTime="0.00" timeLoss="3.47" rerouteNo="0" devices="tripinfo_94 fcd_94" vType="DEFAULT_VEHTYPE" speedFactor="1.09" vaporized=""/>
    <tripinfo id="66" depart="66.00" departLane="348320661#1_0" departPos="5.10" departSpeed="0.00" departDelay="0.00" arrival="107.00" arrivalLane="-143551389#0_1" arrivalPos="290.07" arrivalSpeed="12.35" duration="41.00" routeLength="416.83" waitingTime="0.00" waitingCount="0" stopTime="0.00" timeLoss="7.45" rerouteNo="0" devices="tripinfo_66 fcd_66" vType="DEFAULT_VEHTYPE" speedFactor="0.91" vaporized=""/>
    <tripinfo id="31" depart="36.00" departLane="143551389#0_0" departPos="5.10" departSpeed="0.00" departDelay="5.00" arrival="108.00" arrivalLane="143547931#2_1" arrivalPos="70.81" arrivalSpeed="15.22" duration="72.00" routeLength="574.87" waitingTime="9.00" waitingCount="1" stopTime="0.00" timeLoss="35.59" rerouteNo="0" devices="tripinfo_31 fcd_31" vType="DEFAULT_VEHTYPE" speedFactor="1.15" vaporized=""/>
    <tripinfo id="79" depart="79.00" departLane="143551389#0_0" departPos="5.10" departSpeed="0.00" departDelay="0.00" arrival="108.00" arrivalLane="143551389#1_0" arrivalPos="58.75" arrivalSpeed="14.59" duration="29.00" routeLength="359.83" waitingTime="0.00" waitingCount="0" stopTime="0.00" timeLoss="5.16" rerouteNo="0" devices="tripinfo_79 fcd_79" vType="DEFAULT_VEHTYPE" speedFactor="1.09" vaporized=""/>
    <tripinfo id="58" depart="58.00" departLane="143551389#0_0" departPos="5.10" departSpeed="0.00" departDelay="0.00" arrival="113.00" arrivalLane="-143551389#1_1" arrivalPos="58.75" arrivalSpeed="13.50" duration="55.00" routeLength="423.40" waitingTime="5.00" waitingCount="1" stopTime="0.00" timeLoss="25.11" rerouteNo="0" devices="tripinfo_58 fcd_58" vType="DEFAULT_VEHTYPE" speedFactor="1.02" vaporized=""/>
    <tripinfo id="81" depart="81.00" departLane="143547931#0_0" departPos="5.10" departSpeed="0.00" departDelay="0.00" arrival="113.00" arrivalLane="143547931#2_0" arrivalPos="70.81" arrivalSpeed="13.48" duration="32.00" routeLength="340.32" waitingTime="0.00" waitingCount="0" stopTime="0.00" timeLoss="7.00" rerouteNo="0" devices="tripinfo_81 fcd_81" vType="DEFAULT_VEHTYPE" speedFactor="1.00" vaporized=""/>
    <tripinfo id="55" depart="55.00" departLane="143551389#0_0" departPos="5.10" departSpeed="0.00" departDelay="0.00" arrival="118.00" arrivalLane="143547931#1_1" arrivalPos="126.36" arrivalSpeed="13.15" duration="63.00" routeLength="501.83" waitingTime="10.00" waitingCount="2" stopTime="0.00" timeLoss="25.80" rerouteNo="0" devices="tripinfo_55 fcd_55" vType="DEFAULT_VEHTYPE" speedFactor="1.00" vaporized=""/>
    <tripinfo id="64" depart="64.00" departLane="143551389#0_0" departPos="5.10" departSpeed="0.00" departDelay="0.00" arrival="119.00" arrivalLane="-143551389#0_0" arrivalPos="290.07" arrivalSpeed="12.12" duration="55.00" routeLength="579.86" waitingTime="0.00" waitingCount="0" stopTime="0.00" timeLoss="10.26" rerouteNo="0" devices="tripinfo_64 fcd_64" vType="DEFAULT_VEHTYPE" speedFactor="0.94" vaporized=""/>
    <tripinfo id="8" depart="16.00" departLane="143553082#0_0" departPos="5.10" departSpeed="0.00" departDelay="8.00" arrival="120.00" arrivalLane="-348320661#0_1" arrivalPos="111.67" arrivalSpeed="12.65" duration="104.00" routeLength="1116.54" waitingTime="4.00" waitingCount="1" stopTime="0.00" timeLoss="17.45" rerouteNo="0" devices="tripinfo_8 fcd_8" vType="DEFAULT_VEHTYPE" speedFactor="0.94" vaporized=""/>
    <tripinfo id="3" depart="7.00" departLane="143553082#0_0" departPos="5.10" departSpeed="0.00" departDelay="4.00" arrival="123.00" arrivalLane="-143551389#0_0" arrivalPos="290.07" arrivalSpeed="14.51" duration="116.00" routeLength="1416.01" waitingTime="2.00" waitingCount="2" stopTime="0.00" timeLoss="21.56" rerouteNo="0" devices="tripinfo_3 fcd_3" vType="DEFAULT_VEHTYPE" speedFactor="1.08" vaporized=""/>
    <tripinfo id="4" depart="4.00" departLane="143551389#0_0" departPos="5.10" departSpeed="0.00" departDelay="0.00" arrival="123.00" arrivalLane="-143553082#0_0" arrivalPos="994.11" arrivalSpeed="13.33" duration="119.00" routeLength="1437.19" waitingTime="1.00" waitingCount="1" stopTime="0.00" timeLoss="18.46" rerouteNo="0" devices="tripinfo_4 fcd_4" vType="DEFAULT_VEHTYPE" speedFactor="1.03" vaporized=""/>
    <tripinfo id="72" depart="72.00" departLane="-348320661#1_0" departPos="5.10" departSpeed="0.00" departDelay="0.00" arrival="123.00" arrivalLane="-143547931#1_0" arrivalPos="126.36" arrivalSpeed="12.20" duration="51.00" routeLength="314.02" waitingTime="12.00" waitingCount="2" stopTime="0.00" timeLoss="26.45" rerouteNo="0" devices="tripinfo_72 fcd_72" vType="DEFAULT_VEHTYPE" speedFactor="0.94" vaporized=""/>
    <tripinfo id="65" depart="67.00" departLane="143551389#0_0" departPos="5.10" departSpeed="0.00" departDelay="2.00" arrival="125.00" arrivalLane="143547931#1_1" arrivalPos="126.36" arrivalSpeed="12.13" duration="58.00" routeLength="501.83" waitingTime="3.00" waitingCount="2" stopTime="0.00" timeLoss="17.04" rerouteNo="0" devices="tripinfo_65 fcd_65" vType="DEFAULT_VEHTYPE" speedFactor="0.88" vaporized=""/>
    <tripinfo id="95" depart="95.00" departLane="348320661#0_0" departPos="5.10" departSpeed="0.00" departDelay="0.00" arrival="126.00" arrivalLane="143547931#2_1" arrivalPos="70.81" arrivalSpeed="14.49" duration="31.00" routeLength="264.56" waitingTime="1.00" waitingCount="1" stopTime="0.00" timeLoss="12.17" rerouteNo="0" devices="tripinfo_95 fcd_95" vType="DEFAULT_VEHTYPE" speedFactor="1.06" vaporized=""/>
    <tripinfo id="17" depart="17.00" departLane="348320661#1_0" departPos="5.10" departSpeed="0.00" departDelay="0.00" arrival="128.00" arrivalLane="-143553082#0_0" arrivalPos="994.11" arrivalSpeed="12.16" duration="111.00" routeLength="1262.84" waitingTime="1.00" waitingCount="1" stopTime="0.00" timeLoss="13.63" rerouteNo="0" devices="tripinfo_17 fcd_17" vType="DEFAULT_VEHTYPE" speedFactor="0.94" vaporized=""/>
    <tripinfo id="59" depart="61.00" departLane="143551389#0_0" departPos="5.10" departSpeed="0.00" departDelay="2.00" arrival="130.00" arrivalLane="-143547931#1_0" arrivalPos="126.36" arrivalSpeed="12.84" duration="69.00" routeLength="619.78" waitingTime="0.00" waitingCount="0" stopTime="0.00" timeLoss="22.37" rerouteNo="0" devices="tripinfo_59 fcd_59" vType="DEFAULT_VEHTYPE" speedFactor="0.97" vaporized=""/>
    <tripinfo id="5" depart="10.00" departLane="143553082#0_0" departPos="5.10" departSpeed="0.00" departDelay="5.00" arrival="131.00" arrivalLane="-348320661#0_1" arrivalPos="111.67" arrivalSpeed="11.13" duration="121.00" routeLength="1116.54" waitingTime="5.00" waitingCount="3" stopTime="0.00" timeLoss="23.48" rerouteNo="0" devices="tripinfo_5 fcd_5" vType="DEFAULT_VEHTYPE" speedFactor="0.83" vaporized=""/>
    <tripinfo id="13" depart="15.00" departLane="143551389#0_0" departPos="5.10" departSpeed="0.00" departDelay="2.00" arrival="132.00" arrivalLane="-143553082#0_0" arrivalPos="994.11" arrivalSpeed="15.23" duration="117.00" routeLength="1437.19" waitingTime="3.00" waitingCount="1" stopTime="0.00" timeLoss="24.46" rerouteNo="0" devices="tripinfo_13 fcd_13" vType="DEFAULT_VEHTYPE" speedFactor="1.12" vaporized=""/>
    <tripinfo id="53" depart="53.00" departLane="348320661#0_0" departPos="5.10" departSpeed="0.00" departDelay="0.00" arrival="133.00" arrivalLane="-348320661#1_0" arrivalPos="126.59" arrivalSpeed="5.46" duration="80.00" routeLength="380.82" waitingTime="24.00" waitingCount="3" stopTime="0.00" timeLoss="54.93" rerouteNo="0" devices="tripinfo_53 fcd_53" vType="DEFAULT_VEHTYPE" speedFactor="1.10" vaporized=""/>
    <tripinfo id="60" depart="60.00" departLane="143547931#0_0" departPos="5.10" departSpeed="0.00" departDelay="0.00" arrival="133.00" arrivalLane="348320661#1_1" arrivalPos="126.59" arrivalSpeed="5.11" duration="73.00" routeLength="467.27" waitingTime="11.00" waitingCount="3" stopTime="0.00" timeLoss="41.83" rerouteNo="0" devices="tripinfo_60 fcd_60" vType="DEFAULT_VEHTYPE" speedFactor="1.08" vaporized=""/>
    <tripinfo id="19" depart="20.00" departLane="348320661#1_0" departPos="5.10" departSpeed="0.00" departDelay="1.00" arrival="134.00" arrivalLane="-143553082#0_1" arrivalPos="994.11" arrivalSpeed="16.04" duration="114.00" routeLength="1262.84" waitingTime="5.00" waitingCount="2" stopTime="0.00" timeLoss="35.02" rerouteNo="0" devices="tripinfo_19 fcd_19" vType="DEFAULT_VEHTYPE" speedFactor="1.16" vaporized=""/>
    <tripinfo id="18" depart="18.00" departLane="143551389#1_0" departPos="5.10" departSpeed="0.00" departDelay="0.00" arrival="136.00" arrivalLane="-143553082#0_0" arrivalPos="994.11" arrivalSpeed="12.70" duration="118.00" routeLength="1277.50" waitingTime="5.00" waitingCount="2" stopTime="0.00" timeLoss="19.40" rerouteNo="0" devices="tripinfo_18 fcd_18" vType="DEFAULT_VEHTYPE" speedFactor="0.94" vaporized=""/>
    <tripinfo id="75" depart="75.00" departLane="348320661#0_0" departPos="5.10" departSpeed="0.00" departDelay="0.00" arrival="137.00" arrivalLane="-143551389#0_0" arrivalPos="290.07" arrivalSpeed="13.10" duration="62.00" routeLength="544.75" waitingTime="6.00" waitingCount="1" stopTime="0.00" timeLoss="21.26" rerouteNo="0" devices="tripinfo_75 fcd_75" vType="DEFAULT_VEHTYPE" speedFactor="0.98" vaporized=""/>
    <tripinfo id="2" depart="3.00" departLane="143553082#0_0" departPos="5.10" departSpeed="0.00" departDelay="1.00" arrival="138.00" arrivalLane="-143551389#0_0" arrivalPos="290.07" arrivalSpeed="13.18" duration="135.00" routeLength="1416.01" waitingTime="6.00" waitingCount="4" stopTime="0.00" timeLoss="33.91" rerouteNo="0" devices="tripinfo_2 fcd_2" vType="DEFAULT_VEHTYPE" speedFactor="1.01" vaporized=""/>
    <tripinfo id="78" depart="78.00" departLane="-143547931#2_0" departPos="5.10" departSpeed="0.00" departDelay="0.00" arrival="138.00" arrivalLane="143551389#1_1" arrivalPos="58.75" arrivalSpeed="13.33" duration="60.00" routeLength="343.58" waitingTime="16.00" waitingCount="3" stopTime="0.00" timeLoss="34.94" rerouteNo="0" devices="tripinfo_78 fcd_78" vType="DEFAULT_VEHTYPE" speedFactor="1.01" vaporized=""/>
    <tripinfo id="39" depart="39.00" departLane="-348320661#1_0" departPos="5.10" departSpeed="0.00" departDelay="0.00" arrival="146.00" arrivalLane="-143553082#0_0" arrivalPos="994.11" arrivalSpeed="12.47" duration="107.00" routeLength="1131.43" waitingTime="4.00" waitingCount="1" stopTime="0.00" timeLoss="15.90" rerouteNo="0" devices="tripinfo_39 fcd_39" vType="DEFAULT_VEHTYPE" speedFactor="0.90" vaporized=""/>
    <tripinfo id="29" depart="29.00" departLane="143547931#0_0" departPos="5.10" departSpeed="0.00" departDelay="0.00" arrival="148.00" arrivalLane="-143553082#0_0" arrivalPos="994.11" arrivalSpeed="11.78" duration="119.00" routeLength="1335.25" waitingTime="1.00" waitingCount="1" stopTime="0.00" timeLoss="15.78" rerouteNo="0" devices="tripinfo_29 fcd_29" vType="DEFAULT_VEHTYPE" speedFactor="0.93" vaporized=""/>
    <tripinfo id="10" depart="22.00" departLane="143553082#0_0" departPos="5.10" departSpeed="0.00" departDelay="12.00" arrival="150.00" arrivalLane="143547931#1_1" arrivalPos="126.36" arrivalSpeed="14.01" duration="128.00" routeLength="1323.71" waitingTime="6.00" waitingCount="2" stopTime="0.00" timeLoss="39.85" rerouteNo="0" devices="tripinfo_10 fcd_10" vType="DEFAULT_VEHTYPE" speedFactor="1.09" vaporized=""/>
    <tripinfo id="0" depart="0.00" departLane="143553082#0_0" departPos="5.10" departSpeed="0.00" departDelay="0.00" arrival="151.00" arrivalLane="-143553082#0_0" arrivalPos="994.11" arrivalSpeed="14.03" duration="151.00" routeLength="1987.99" waitingTime="1.00" waitingCount="1" stopTime="0.00" timeLoss="15.70" rerouteNo="0" devices="tripinfo_0 fcd_0" vType="DEFAULT_VEHTYPE" speedFactor="1.06" vaporized=""/>
    <tripinfo id="91" depart="91.00" departLane="143547931#0_0" departPos="5.10" departSpeed="0.00" departDelay="0.00" arrival="152.00" arrivalLane="-143551389#0_0" arrivalPos="290.07" arrivalSpeed="11.27" duration="61.00" routeLength="491.58" waitingTime="8.00" waitingCount="2" stopTime="0.00" timeLoss="21.00" rerouteNo="0" devices="tripinfo_91 fcd_91" vType="DEFAULT_VEHTYPE" speedFactor="0.89" vaporized=""/>
    <tripinfo id="126" depart="126.00" departLane="143547931#0_0" departPos="5.10" departSpeed="0.00" departDelay="0.00" arrival="153.00" arrivalLane="-143547931#0_1" arrivalPos="116.07" arrivalSpeed="13.15" duration="27.00" routeLength="231.86" waitingTime="2.00" waitingCount="1" stopTime="0.00" timeLoss="10.51" rerouteNo="0" devices="tripinfo_126 fcd_126" vType="DEFAULT_VEHTYPE" speedFactor="1.03" vaporized=""/>
    <tripinfo id="97" depart="97.00" departLane="-143551389#1_0" departPos="5.10" departSpeed="0.00" departDelay="0.00" arrival="154.00" arrivalLane="143547931#2_1" arrivalPos="70.81" arrivalSpeed="12.32" duration="57.00" routeLength="332.89" waitingTime="15.00" waitingCount="2" stopTime="0.00" timeLoss="29.79" rerouteNo="0" devices="tripinfo_97 fcd_97" vType="DEFAULT_VEHTYPE" speedFactor="0.91" vaporized=""/>
    <tripinfo id="113" depart="119.00" departLane="143553082#1_0" departPos="5.10" departSpeed="0.00" departDelay="6.00" arrival="156.00" arrivalLane="-143547931#0_0" arrivalPos="116.07" arrivalSpeed="12.89" duration="37.00" routeLength="314.24" waitingTime="6.00" waitingCount="1" stopTime="0.00" timeLoss="14.25" rerouteNo="0" devices="tripinfo_113 fcd_113" vType="DEFAULT_VEHTYPE" speedFactor="1.01" vaporized=""/>
    <tripinfo id="21" depart="31.00" departLane="143553082#0_0" departPos="5.10" departSpeed="0.00" departDelay="10.00" arrival="157.00" arrivalLane="-143551389#0_0" arrivalPos="290.07" arrivalSpeed="13.23" duration="126.00" routeLength="1416.01" waitingTime="3.00" waitingCount="2" stopTime="0.00" timeLoss="24.38" rerouteNo="0" devices="tripinfo_21 fcd_21" vType="DEFAULT_VEHTYPE" speedFactor="1.01" vaporized=""/>
    <tripinfo id="52" depart="52.00" departLane="-348320661#1_0" departPos="5.10" departSpeed="0.00" departDelay="0.00" arrival="157.00" arrivalLane="-143553082#0_0" arrivalPos="994.11" arrivalSpeed="13.92" duration="105.00" routeLength="1131.43" waitingTime="6.00" waitingCount="1" stopTime="0.00" timeLoss="24.83" rerouteNo="0" devices="tripinfo_52 fcd_52" vType="DEFAULT_VEHTYPE" speedFactor="1.02" vaporized=""/>
    <tripinfo id="117" depart="119.00" departLane="143551389#0_0" departPos="5.10" departSpeed="0.00" departDelay="2.00" arrival="157.00" arrivalLane="143551389#1_0" arrivalPos="58.75" arrivalSpeed="13.49" duration="38.00" routeLength="359.83" waitingTime="2.00" waitingCount="1" stopTime="0.00" timeLoss="11.44" rerouteNo="0" devices="tripinfo_117 fcd_117" vType="DEFAULT_VEHTYPE" speedFactor="1.00" vaporized=""/>
    <tripinfo id="7" depart="13.00" departLane="143553082#0_0" departPos="5.10" departSpeed="0.00" departDelay="6.00" arrival="158.00" arrivalLane="-348320661#1_0" arrivalPos="126.59" arrivalSpeed="7.31" duration="145.00" routeLength="1252.08" waitingTime="15.00" waitingCount="2" stopTime="0.00" timeLoss="42.70" rerouteNo="0" devices="tripinfo_7 fcd_7" vType="DEFAULT_VEHTYPE" speedFactor="0.89" vaporized=""/>
    <tripinfo id="111" depart="114.00" departLane="-143547931#1_0" departPos="5.10" departSpeed="0.00" departDelay="3.00" arrival="160.00" arrivalLane="-348320661#1_0" arrivalPos="126.59" arrivalSpeed="6.14" duration="46.00" routeLength="316.68" waitingTime="9.00" waitingCount="1" stopTime="0.00" timeLoss="19.60" rerouteNo="0" devices="tripinfo_111 fcd_111" vType="DEFAULT_VEHTYPE" speedFactor="0.87" vaporized=""/>
    <tripinfo id="35" depart="35.00" departLane="143547931#0_0" departPos="5.10" departSpeed="0.00" departDelay="0.00" arrival="161.00" arrivalLane="-143553082#0_1" arrivalPos="994.11" arrivalSpeed="13.34" duration="126.00" routeLength="1335.25" waitingTime="10.00" waitingCount="1" stopTime="0.00" timeLoss="31.48" rerouteNo="0" devices="tripinfo_35 fcd_35" vType="DEFAULT_VEHTYPE" speedFactor="1.02" vaporized=""/>
    <tripinfo id="124" depart="124.00" departLane="-348320661#1_0" departPos="5.10" departSpeed="0.00" departDelay="0.00" arrival="161.00" arrivalLane="143553082#1_0" arrivalPos="55.80" arrivalSpeed="14.38" duration="37.00" routeLength="182.64" waitingTime="15.00" waitingCount="1" stopTime="0.00" timeLoss="24.46" rerouteNo="0" devices="tripinfo_124 fcd_124" vType="DEFAULT_VEHTYPE" speedFactor="1.06" vaporized=""/>
    <tripinfo id="36" depart="40.00" departLane="143553082#0_0" departPos="5.10" departSpeed="0.00" departDelay="4.00" arrival="162.00" arrivalLane="-348320661#0_1" arrivalPos="111.67" arrivalSpeed="12.41" duration="122.00" routeLength="1116.54" waitingTime="10.00" waitingCount="1" stopTime="0.00" timeLoss="38.63" rerouteNo="0" devices="tripinfo_36 fcd_36" vType="DEFAULT_VEHTYPE" speedFactor="0.97" vaporized=""/>
    <tripinfo id="48" depart="48.00" departLane="-348320661#1_0" departPos="5.10" departSpeed="0.00" departDelay="0.00" arrival="163.00" arrivalLane="-143553082#0_0" arrivalPos="994.11" arrivalSpeed="11.87" duration="115.00" routeLength="1131.43" waitingTime="0.00" waitingCount="0" stopTime="0.00" timeLoss="21.26" rerouteNo="0" devices="tripinfo_48 fcd_48" vType="DEFAULT_VEHTYPE" speedFactor="0.88" vaporized=""/>
    <tripinfo id="149" depart="149.00" departLane="143547931#1_0" departPos="5.10" departSpeed="0.00" departDelay="0.00" arrival="169.00" arrivalLane="143547931#2_0" arrivalPos="70.81" arrivalSpeed="13.55" duration="20.00" routeLength="208.18" waitingTime="0.00" waitingCount="0" stopTime="0.00" timeLoss="4.76" rerouteNo="0" devices="tripinfo_149 fcd_149" vType="DEFAULT_VEHTYPE" speedFactor="1.04" vaporized=""/>
    <tripinfo id="140" depart="140.00" departLane="143547931#1_0" departPos="5.10" departSpeed="0.00" departDelay="0.00" arrival="170.00" arrivalLane="-143547931#0_1" arrivalPos="116.07" arrivalSpeed="15.01" duration="30.00" routeLength="384.60" waitingTime="0.00" waitingCount="0" stopTime="0.00" timeLoss="4.74" rerouteNo="0" devices="tripinfo_140 fcd_140" vType="DEFAULT_VEHTYPE" speedFactor="1.11" vaporized=""/>
    <tripinfo id="141" depart="141.00" departLane="-143547931#2_0" departPos="5.10" departSpeed="0.00" departDelay="0.00" arrival="170.00" arrivalLane="-348320661#0_0" arrivalPos="111.67" arrivalSpeed="15.04" duration="29.00" routeLength="243.19" waitingTime="1.00" waitingCount="1" stopTime="0.00" timeLoss="13.89" rerouteNo="0" devices="tripinfo_141 fcd_141" vType="DEFAULT_VEHTYPE" speedFactor="1.16" vaporized=""/>
    <tripinfo id="164" depart="164.00" departLane="-143553082#1_0" departPos="5.10" departSpeed="0.00" departDelay="0.00" arrival="171.00" arrivalLane="-143553082#1_0" arrivalPos="55.80" arrivalSpeed="13.64" duration="7.00" routeLength="50.70" waitingTime="0.00" waitingCount="0" stopTime="0.00" timeLoss="3.33" rerouteNo="0" devices="tripinfo_164 fcd_164" vType="DEFAULT_VEHTYPE" speedFactor="1.05" vaporized=""/>
    <tripinfo id="139" depart="139.00" departLane="348320661#1_0" departPos="5.10" departSpeed="0.00" departDelay="0.00" arrival="174.00" arrivalLane="143551389#1_1" arrivalPos="58.75" arrivalSpeed="8.81" duration="35.00" routeLength="196.14" waitingTime="3.00" waitingCount="1" stopTime="0.00" timeLoss="19.70" rerouteNo="0" devices="tripinfo_139 fcd_139" vType="DEFAULT_VEHTYPE" speedFactor="0.95" vaporized=""/>
    <tripinfo id="32" depart="37.00" departLane="143553082#0_0" departPos="5.10" departSpeed="0.00" departDelay="5.00" arrival="175.00" arrivalLane="-348320661#1_1" arrivalPos="126.59" arrivalSpeed="5.64" duration="138.00" routeLength="1252.08" waitingTime="8.00" waitingCount="1" stopTime="0.00" timeLoss="48.17" rerouteNo="0" devices="tripinfo_32 fcd_32" vType="DEFAULT_VEHTYPE" speedFactor="1.01" vaporized=""/>
    <tripinfo id="172" depart="172.00" departLane="143551389#1_0" departPos="5.10" departSpeed="0.00" departDelay="0.00" arrival="180.00" arrivalLane="143551389#1_0" arrivalPos="58.75" arrivalSpeed="11.25" duration="8.00" routeLength="53.65" waitingTime="0.00" waitingCount="0" stopTime="0.00" timeLoss="3.57" rerouteNo="0" devices="tripinfo_172 fcd_172" vType="DEFAULT_VEHTYPE" speedFactor="0.89" vaporized=""/>
    <tripinfo id="109" depart="109.00" departLane="143551389#0_0" departPos="5.10" departSpeed="0.00" departDelay="0.00" arrival="182.00" arrivalLane="143547931#1_1" arrivalPos="126.36" arrivalSpeed="10.88" duration="73.00" routeLength="501.83" waitingTime="15.00" waitingCount="2" stopTime="0.00" timeLoss="35.26" rerouteNo="0" devices="tripinfo_109 fcd_109" vType="DEFAULT_VEHTYPE" speedFactor="0.96" vaporized=""/>
    <tripinfo id="115" depart="115.00" departLane="-143547931#2_0" departPos="5.10" departSpeed="0.00" departDelay="0.00" arrival="182.00" arrivalLane="-143551389#0_0" arrivalPos="290.07" arrivalSpeed="12.16" duration="67.00" routeLength="564.27" waitingTime="8.00" waitingCount="2" stopTime="0.00" timeLoss="22.62" rerouteNo="0" devices="tripinfo_115 fcd_115" vType="DEFAULT_VEHTYPE" speedFactor="0.92" vaporized=""/>
    <tripinfo id="54" depart="55.00" departLane="-348320661#1_0" departPos="5.10" departSpeed="0.00" departDelay="1.00" arrival="183.00" arrivalLane="-143553082#0_0" arrivalPos="994.11" arrivalSpeed="13.36" duration="128.00" routeLength="1131.43" waitingTime="3.00" waitingCount="1" stopTime="0.00" timeLoss="46.16" rerouteNo="0" devices="tripinfo_54 fcd_54" vType="DEFAULT_VEHTYPE" speedFactor="1.00" vaporized=""/>